<VTKFile type="PolyData" version="1.0" byte_order="LittleEndian" header_type="UInt64">
  <PolyData>
    <Piece NumberOfPoints="2601" NumberOfVerts="0" NumberOfLines="0" NumberOfStrips="0" NumberOfPolys="2500">
      <PointData>
        <DataArray type="Float32" Name="zvalue" NumberOfComponents="1" format="ascii" RangeMin="-2.0976476941097486" RangeMax="2.312535423847214">
          2.312535423847214 2.312535423847214 2.312535423847214 2.312535423847214 2.312535423847214 2.312535423847214
          2.312535423847214 2.312535423847214 2.312535423847214 2.312535423847214 2.312535423847214 2.312535423847214
          2.312535423847214 2.312535423847214 2.312535423847214 2.312535423847214 2.312535423847214 2.312535423847214
          2.312535423847214 2.2701975392131146 2.227329593188212 2.185323688416085 2.143619220993976 2.103653466850985
          2.0653873004193217 2.0288508235921068 1.9955507935639931 1.9646694488642977 1.937190414426962 1.9127008566336403
          1.8915246616086892 1.8742397362427736 1.859870064012504 1.8500916570116175 1.842581772948888 1.8389232632768104
          1.8379912188631489 1.840259681276031 1.8459008086444895 1.85366503392859 1.8648652941920614 1.8787472842187252
          1.8954816823783431 1.9149852277219617 1.9379190166735674 1.963733096401166 1.9916167563677263 2.022560393237779
          2.0560730688846185 2.092148590316848 2.1297700199741065 2.312535423847214 2.312535423847214 2.312535423847214
          2.312535423847214 2.312535423847214 2.312535423847214 2.312535423847214 2.312535423847214 2.312535423847214
          2.312535423847214 2.312535423847214 2.312535423847214 2.312535423847214 2.312535423847214 2.312535423847214
          2.312535423847214 2.311595607202396 2.2648243584550314 2.2188311053135146 2.172861998827365 2.127208080291931
          2.0821419537737174 2.0384624293822045 1.995734881808217 1.9549990293653094 1.916854525932827 1.8814649524678526
          1.8492207074474514 1.8197029298701004 1.7939770542470908 1.771662142005492 1.7530835403172378 1.7388557692192803
          1.72796585359863 1.7210727220153668 1.7173945435653173 1.717574756342276 1.7206822387758927 1.727620472256718
          1.7379005746319698 1.750690953566085 1.7672607455575144 1.786482374404093 1.8094078172222003 1.8352836939880932
          1.864498843784883 1.8969788937333467 1.9316399775177644 1.9695286182926541 2.0095143898241306 2.0522858578374414
          2.312535423847214 2.312535423847214 2.312535423847214 2.312535423847214 2.312535423847214 2.312535423847214
          2.312535423847214 2.312535423847214 2.312535423847214 2.312535423847214 2.312535423847214 2.312535423847214
          2.312535423847214 2.312535423847214 2.312535423847214 2.2689651056984332 2.2188903070803248 2.1696446560601945
          2.12029634607 2.071389736229594 2.022966139434369 1.9751732240446045 1.928077470760041 1.882479053940218
          1.8395455182839255 1.7989844219811075 1.7614846180530976 1.7267779604460134 1.6955394147062617 1.667649490636584
          1.6437741439069602 1.624018854838779 1.6084846884434278 1.5974785579211868 1.5902760330998953 1.5877661750737744
          1.5886413189438817 1.593948549856806 1.602483301247894 1.6142402583832633 1.6299641146122328 1.6489627249307295
          1.671908626033352 1.6974021763344984 1.7277840762780292 1.7613430205585527 1.7976990497931842 1.8379509828481948
          1.8802745948345165 1.9259000485860318 1.9737953486843258 2.312535423847214 2.312535423847214 2.312535423847214
          2.312535423847214 2.312535423847214 2.312535423847214 2.312535423847214 2.312535423847214 2.312535423847214
          2.312535423847214 2.312535423847214 2.312535423847214 2.312535423847214 2.283161988537459 2.2291645349516833
          2.1760711063236333 2.1228998932155387 2.0700701375032815 2.017632939564896 1.9654235604981376 1.9136629627698305
          1.8620596081881131 1.8119026939380902 1.7633616485967443 1.716880020157014 1.6736923288901713 1.6334767064275266
          1.5965379992483673 1.5623218087038488 1.5321233703289932 1.5063011032294182 1.484673155530943 1.468527597406147
          1.4568563536962038 1.450303525661295 1.4479871808548286 1.4501780694859217 1.4571232378877808 1.4670883953828309
          1.4820004331768164 1.5003603828117436 1.523273788113833 1.5500161062954518 1.5808738018136865 1.615330101364713
          1.6543338709281319 1.6966612303110622 1.7420822876381246 1.791176024851956 1.842208925543755 1.8972062351959238
          2.312535423847214 2.312535423847214 2.312535423847214 2.312535423847214 2.312535423847214 2.312535423847214
          2.312535423847214 2.312535423847214 2.312535423847214 2.312535423847214 2.312535423847214 2.3087936398629787
          2.2514648798558583 2.1939524585154806 2.1368749801569296 2.0798020584826626 2.0229648605671753 1.966641832721854
          1.9102838109481046 1.8542037135039606 1.798110523927742 1.7428393188001756 1.6885771778939787 1.636112618268492
          1.5869301972393222 1.5400658694973315 1.496466533021183 1.4550753530609781 1.4178647960145139 1.3844755720544146
          1.3560187603685192 1.3332924528466097 1.3152532843046205 1.3039874348307288 1.2971563793089533 1.2964582689074933
          1.2997859011504882 1.3088888063542352 1.322392847188636 1.3403927924184682 1.3637237742004453 1.3906212506727789
          1.4228027707484872 1.459006457846696 1.5002043882715281 1.5455540420967262 1.594038169611819 1.6466135577743168
          1.7021537169298269 1.7607974379513056 1.821314482095462 2.312535423847214 2.312535423847214 2.312535423847214
          2.312535423847214 2.312535423847214 2.312535423847214 2.312535423847214 2.312535423847214 2.312535423847214
          2.312535423847214 2.28430612040878 2.223515111299699 2.1625455185181948 2.101603786527719 2.0409635309498833
          1.979599679662567 1.9188393233945316 1.8583857042909397 1.7976373416370686 1.7367210878873274 1.6758838872089727
          1.6151495381542973 1.5566978378401768 1.5004510327369902 1.4459558686774237 1.3950495445509454 1.346200199593223
          1.3012636836015725 1.2595126339713836 1.2225984306217168 1.1914215194169098 1.1661826528315984 1.1480943219364925
          1.1356394011939221 1.1300190928229308 1.1300745686042843 1.1368735787148372 1.1491409845753973 1.1670040847206988
          1.190418330950408 1.2190340804793776 1.2535581731872043 1.2922648364991278 1.3359061059560837 1.3834011643322346
          1.4361740447867142 1.4923555557419523 1.5511000830144857 1.6138518341154797 1.6796924610270372 1.747742068175975
          2.312535423847214 2.312535423847214 2.312535423847214 2.312535423847214 2.312535423847214 2.312535423847214
          2.312535423847214 2.312535423847214 2.312535423847214 2.264627512430734 2.2010533345195835 2.1361858557553424
          2.071055995725088 2.005759041351872 1.9404598440677268 1.87520123843075 1.8097075249405286 1.7441311238584885
          1.6783150088070997 1.6118237176312649 1.5452663630906252 1.4790816919820853 1.4143178713554683 1.3520200254658374
          1.2923628983788564 1.2352817046126614 1.1812383824130086 1.1299689029842341 1.0837982298127484 1.0433077590596098
          1.0079546182766392 0.9809069437985466 0.9612440331750017 0.9500891943657015 0.945655885926347 0.9501364896923257
          0.9603982211633332 0.9793916319289052 1.0042659695842666 1.0347573426062258 1.071422526977628 1.113240006743992
          1.159819570775791 1.2107778512637235 1.2659106452268483 1.3255866662803222 1.3887477139489306 1.4561564464058556
          1.5264597986707191 1.6000177149768449 1.6755232428632496 2.312535423847214 2.312535423847214 2.312535423847214
          2.312535423847214 2.312535423847214 2.312535423847214 2.312535423847214 2.312535423847214 2.248234145089371
          2.1816722004975864 2.1145561855971793 2.0461892397791708 1.9767351720087183 1.9062930881112197 1.836199011125913
          1.7656655523438793 1.6951740156880393 1.6236215524431048 1.5515147206855209 1.4780001779856622 1.4047242529497737
          1.331275453151838 1.2593556594854785 1.1897882960939838 1.1229811078296046 1.0590704488267444 0.9968343708737022
          0.9391075283751782 0.886289399403419 0.8409214692892666 0.8034778623538641 0.774501118835076 0.7554715245801317
          0.7464318168045155 0.7473873373194859 0.756610182663105 0.7753213782364247 0.8018359096011934 0.834754813249558
          0.8745088676038336 0.919446536708242 0.9696212155115951 1.0233504998549356 1.08313769880227 1.146634667795577
          1.2136593893697931 1.285749838307479 1.3609673517233487 1.4405462716906983 1.5232047447257238 1.6083405742950352
          2.312535423847214 2.312535423847214 2.312535423847214 2.312535423847214 2.312535423847214 2.312535423847214
          2.3030147112634145 2.23605611133537 2.167363439326242 2.0968195055489676 2.0251631404747523 1.9519714958560939
          1.8782411714235188 1.8037113849548108 1.7281879081780946 1.6516814323830167 1.5746062895369484 1.496129238011972
          1.4162851494211766 1.3350325294406316 1.2524249197528896 1.170651514329587 1.0905044189453919 1.0121903545439292
          0.9363591916552091 0.861647736765866 0.7915203607547955 0.7247727935230773 0.6653092661008037 0.6152918422330041
          0.5741254620848489 0.5466911982191245 0.5297390023369846 0.526541487183865 0.5336760549441315 0.553395742725197
          0.5807597237933735 0.6172357728782351 0.6603509869586622 0.7086277583419612 0.7635221606005668 0.8226298000160768
          0.886571060896838 0.9543329201769968 1.0279470080921878 1.1042537566299901 1.1853179528989288 1.2708197001540888
          1.3596656502135889 1.4522714756922779 1.5467700916021883 2.312535423847214 2.312535423847214 2.312535423847214
          2.312535423847214 2.312535423847214 2.2958824444889427 2.2275462184869865 2.1572100088954045 2.0845270860184706
          2.0103121342350114 1.9339997336404626 1.8564144880211189 1.7771808473216146 1.6970617023016559 1.6162290580030545
          1.5331522103449957 1.4488857827151462 1.3620146566295006 1.2730475517070698 1.1815824284790057 1.0891815371610571
          0.9970147853894997 0.9064539003914851 0.817553116559784 0.7297786105689882 0.6443558581133714 0.5616724853159079
          0.4850145994234573 0.4170698157364098 0.3623487824990908 0.32094115714422117 0.29483152367131105 0.28584044954382043
          0.2916355504261937 0.3110959575013363 0.34122967165842133 0.3816430902024062 0.42927141024817433 0.4828498141145837
          0.5427831696574172 0.6073173233638013 0.678293303333323 0.752151707079487 0.8301029014902191 0.9137880208919604
          0.9999601277039173 1.0923134410624085 1.1874560101696912 1.2880576156804127 1.3907651857764842 1.4958378880741112
          2.312535423847214 2.312535423847214 2.312535423847214 2.312535423847214 2.291978911665972 2.223185618640662
          2.1514005399471006 2.0770411175847308 2.0007633249052095 1.9225969603537745 1.8417737892919996 1.7590996900550895
          1.674804684424888 1.588567920136555 1.5008363870859938 1.4112979523961096 1.3183320904787685 1.222286909355398
          1.122590640342388 1.0207587221079817 0.9157385445763121 0.8117336094949223 0.7082740579395786 0.6059643400202555
          0.5043075421667805 0.4032163518581154 0.3065125251104051 0.21721388685446685 0.14132624842177335 0.08089711934516279
          0.040951130707520135 0.024064366851641067 0.026478611803407562 0.04943665227377065 0.08223560819593559 0.1279181710454063
          0.1805174028733499 0.2422054679271924 0.3096209521330565 0.38128396511575136 0.45886791592091897 0.5397698141999931
          0.626530514163437 0.7148818665571609 0.8091783781537781 0.9074320614558552 1.010542952493517 1.1186198956182773
          1.2295768528898028 1.3434738680005107 1.4571489349937579 2.312535423847214 2.312535423847214 2.312535423847214
          2.2904936174713684 2.2221559434346583 2.1497932582576595 2.07471116833192 1.996900986006567 1.9165278612519818
          1.8335656747437898 1.7480702486253463 1.6607253794113999 1.5710042848001788 1.4790314091024606 1.3842260490425422
          1.2858444295540847 1.1841297957287693 1.077476370029063 0.9665756394608387 0.8516226183776765 0.7347332714342681
          0.6177350989996843 0.4982065615025783 0.3792720743424234 0.2579013982974777 0.13940294019937777 0.022405019714366477
          -0.08239655630214789 -0.1683928286740672 -0.22545680260079212 -0.25217382989594 -0.25241665945100045 -0.23077880534122872
          -0.19231805383790085 -0.14018939233796165 -0.07931185028734603 -0.010188118408748456 0.06590859760520139 0.14604965332554604
          0.23217207527495395 0.32161948595842715 0.4141689542023835 0.511198298146248 0.6125575044942722 0.7198124692222748
          0.8302143121091649 0.9468819467400604 1.067053103379898 1.1902690148826436 1.3132265710829374 1.4347224653280686
          2.312535423847214 2.312535423847214 2.292983995398864 2.224196504558406 2.151687177721457 2.0761581473612365
          1.998337170915645 1.9167397004981195 1.8326238915147879 1.7453378812475095 1.655357359013056 1.5626645321274297
          1.4674475539299734 1.368966835596649 1.2663523220614625 1.15959090798525 1.0477739079058437 0.9300796357491798
          0.8063565586757372 0.6783227092530245 0.5472262708500636 0.4134059410594211 0.2777326647821048 0.13752550430027496
          -0.008702688333106551 -0.15499178797937485 -0.2915416849359796 -0.40808016864892344 -0.48951194637556517 -0.5321485107082865
          -0.5405107046586807 -0.518946108931518 -0.47762222868888643 -0.4199793312580226 -0.3513680098716053 -0.2735898247176871
          -0.18771042640187663 -0.09854354148056899 -0.003010471715648021 0.09342234818713324 0.1964748743689988 0.3011819020189576
          0.41161633736199904 0.5260860338552062 0.6474348678654105 0.7738429583987222 0.9038123547982331 1.0368563890279066
          1.1707523753822093 1.301799235479142 1.4280506846271996 2.312535423847214 2.29730692005895 2.2295676688918866
          2.1579131099280286 2.0827010863589295 2.0041438411828074 1.921793736690777 1.8367898572555637 1.7492258228442958
          1.6580173854908282 1.5632975128607955 1.4655079715678623 1.3642327673639176 1.259178615460576 1.1495026508360797
          1.0335929648555595 0.9106832820763385 0.7811128193039201 0.6449618558036684 0.5014908747676059 0.35355050611856453
          0.20104742127280714 0.04138584969529736 -0.12735476700512002 -0.30323981823653945 -0.4732274374536668 -0.6225847168109198
          -0.7318992900275771 -0.7964545289524364 -0.8178046870837319 -0.8047583485845012 -0.7664809470570554 -0.7062438787332261
          -0.6336162703120338 -0.5480197253811933 -0.4557802600111057 -0.3555582856332927 -0.2518202341813918 -0.14390345860040807
          -0.0328939553383995 0.08219899399179371 0.2018716784977005 0.32755382450248527 0.4588817953263275 0.5967457895561809
          0.7389812161092606 0.8848424017724564 1.0302622667593222 1.1720975599868235 1.3074718018463702 1.4362183267737672
          2.3032580972886088 2.2363247083753026 2.165665777170616 2.092160652069772 2.0140792259129805 1.9323440636702969
          1.847038388066861 1.758833266800255 1.6661365897299814 1.5705332800027525 1.4714925892914235 1.3694145378497151
          1.2623299476903242 1.1506240619092627 1.0327931363415124 0.907732413459692 0.7746921779520094 0.632208234185852
          0.479085375069047 0.3190308629609124 0.15031707902425545 -0.02810586811429694 -0.2192465316563789 -0.42127836126620305
          -0.6201665132078873 -0.7989587322811759 -0.9358725375151496 -1.0241098687907022 -1.0652001718770707 -1.0675135020867774
          -1.0411479079302357 -0.9894024731674934 -0.9188037817993254 -0.8325833247503973 -0.733730167787273 -0.6285327756619378
          -0.5152549226356671 -0.39915934107946355 -0.27661862422991684 -0.15057113478421627 -0.018623228078963956 0.11713020765483752
          0.2608721202871944 0.4112196269697191 0.568409801448993 0.7271569053742278 0.8869230435014273 1.0415472036366382
          1.1890531102378046 1.328286383265372 1.4589059114115013 2.2459187511007994 2.176719486624364 2.1033029076943683
          2.026053147826742 1.9452830180316332 1.861288534673825 1.772986282038669 1.6811129286721 1.5856040372413687
          1.4861219766559737 1.3819831313833937 1.2743449880333582 1.1614131021371341 1.0429340856449887 0.9162729952749902
          0.7813116352503754 0.6353366386426829 0.4775582206957293 0.3070777522849268 0.12496382095284145 -0.07252968862577021
          -0.28340140081214693 -0.5084086691733274 -0.7350240684447636 -0.9391350418150834 -1.098900380083579 -1.20779550906045
          -1.2684014120351659 -1.2909133253670655 -1.2826134267537617 -1.247126743142154 -1.1899421601446178 -1.1138440637513904
          -1.0215668129653666 -0.9122092547695784 -0.7950881266584401 -0.6693521934578848 -0.5381376208702586 -0.4018170391630862
          -0.258963537242701 -0.1083004138256488 0.04886153748154478 0.2138761725955524 0.38573620497133126 0.562181831697625
          0.7373120961363308 0.9080472700078273 1.06910252392697 1.2196170238343618 1.3602415631199234 1.493841128464717
          2.1893345704592244 2.117551456124392 2.041867321287174 1.9614788080422623 1.8779105772165676 1.7904305245145777
          1.6992342770794138 1.6049452914649123 1.5058160812172177 1.402701736344645 1.294673350012426 1.1817792681403023
          1.0627475529256571 0.9356619139888765 0.7993521819541519 0.6515782304688482 0.489778041525604 0.31327429041231114
          0.11932051275424355 -0.09139492813201283 -0.32190218403889037 -0.567457188469989 -0.8170316770294116 -1.0451054365763417
          -1.2252822578832243 -1.3517326941215269 -1.4298579790572303 -1.4685121984792806 -1.4780630653554605 -1.46206916061361
          -1.4265954599555808 -1.3688547017838797 -1.2908853092425636 -1.1942145540792506 -1.081100653537106 -0.9543257380818938
          -0.8158556290670247 -0.6705128334012503 -0.5159493913518001 -0.35360040700431555 -0.18115301159499728 0.0006451372126451819
          0.1898434220638644 0.38505959285434366 0.5796099896082375 0.7682362974062583 0.9448295872301555 1.1102062471248855
          1.2620753876622044 1.4037268556801465 1.537468510942826 2.1323985002346175 2.0580517247808916 1.9806933179714834
          1.898319764795454 1.8121312235164377 1.7213503669369292 1.6274560691780204 1.5293238657726467 1.4266834061349125
          1.3198738265197076 1.2085248364913543 1.0894388686456027 0.9629104691868197 0.8271307954218624 0.6787525030160115
          0.5152876776945408 0.33445536439616635 0.1329280899005377 -0.09103803797014054 -0.3366994867055694 -0.6038113003413187
          -0.8751933589899612 -1.1206485594533806 -1.3171298871316124 -1.4596791937643943 -1.5515245943348002 -1.6050560479116733
          -1.628289449730306 -1.6296113145538698 -1.613281127475869 -1.577582676726479 -1.5232205596081239 -1.4479852587970696
          -1.3515863990243215 -1.2356944209312917 -1.1026929330171802 -0.9531648206762346 -0.7910076477007393 -0.6154537464963388
          -0.42893142374126453 -0.2290449395769683 -0.021345903662671688 0.19508842219678096 0.41039708670225616 0.6192082662676558
          0.8151520927777444 0.9951541760415754 1.1606533756188033 1.3143690825476113 1.4569194652719857 1.5899476389357874
          2.0760419833282158 1.9996699052525384 1.9190282862450907 1.8343989915854555 1.7466701328451786 1.6540943753738215
          1.5572170831311116 1.455812185822713 1.3500534836124192 1.2385412264750095 1.1210517814690533 0.9954993327586318
          0.8607625383908662 0.7132509760623851 0.5512035780112957 0.3691460921800005 0.1636568409283006 -0.07021038561885017
          -0.3305688673850751 -0.6162398628021512 -0.9057551964919381 -1.1674023607799129 -1.381431121998102 -1.53813245245473
          -1.6428556481847922 -1.7067955096837322 -1.742857033286921 -1.758250336132303 -1.7555815782563877 -1.7373565290171573
          -1.7028244241250765 -1.650417682458519 -1.579378635998594 -1.4857329419371545 -1.368376878288623 -1.2291940432620765
          -1.068232874469239 -0.8880172764976456 -0.6893377468722498 -0.4740021414518111 -0.24419063073923353 -0.008156505363913859
          0.23236772535096195 0.4628364684952799 0.6784064801607226 0.8761117454053341 1.0578958814767812 1.2226562538119456
          1.375243414877845 1.517279047874093 1.6488652205001362 2.0206937188857608 1.9418629442608755 1.859103334787859
          1.7722886082560043 1.6813993981044912 1.5865342381114067 1.4879856541603749 1.3837644065712318 1.2743699424940196
          1.1576073742370248 1.033814293266458 0.9004105054443496 0.755180622898586 0.5939012790456423 0.4128045842091757
          0.20703068020511797 -0.028972600208720157 -0.2993532939126877 -0.5994895039293127 -0.909714120892016 -1.190219895300209
          -1.419564581484994 -1.589796418706941 -1.7061547022633485 -1.7813830594960132 -1.8274638492211384 -1.8526605610017746
          -1.8610035069242241 -1.8552259936200661 -1.8357300686902909 -1.801853553975909 -1.75125865637824 -1.6811254543755272
          -1.5901331035257376 -1.4723503471789583 -1.3279255203802565 -1.1536283835630785 -0.9516409187792733 -0.7246350231276888
          -0.47700549780287743 -0.21665615299967164 0.04491327763939569 0.2983954580882126 0.537004505860193 0.7537425120082347
          0.9500276473085848 1.1294840043617844 1.2928316687009402 1.4429703735752173 1.5822820871383663 1.7109465587945825
          1.9652423597402797 1.8848241555243976 1.8000908558935673 1.711292650203008 1.618249457959185 1.520971883803101
          1.4187012209050414 1.311086959835514 1.1970364190462466 1.0766514551702047 0.945516528423474 0.8016920020407766
          0.6433327189309643 0.46508968130023015 0.26207366710781277 0.0253144621010018 -0.24828184321022528 -0.5588060160511947
          -0.8816568773539141 -1.1821373505494268 -1.4302237515080414 -1.6165663679551237 -1.7445358189229294 -1.830282334385587
          -1.8854066435737948 -1.9197297131495046 -1.9373403426529827 -1.9418276116364015 -1.933034470540669 -1.9118043422575937
          -1.8768849630786253 -1.8258689435228594 -1.755791131611072 -1.6630489480492103 -1.5418973912846763 -1.3869621624173034
          -1.1947739300214837 -0.9660697454846109 -0.7071303362911061 -0.4292603096153679 -0.14580102312761342 0.13283225650738723
          0.3905225167752115 0.6261009240825374 0.8400417604849252 1.0338815004516004 1.208228770431406 1.3681433756522363
          1.5135146301700857 1.647839512921758 1.7741711254031596 1.9111518154331935 1.8284405394610952 1.7419106511089906
          1.6512517852594741 1.555896188615992 1.4559113099280374 1.350893158046938 1.2393618908973363 1.1202681193922963
          0.9921334456752182 0.8525803176164102 0.6985171588156074 0.5245436965436605 0.3250634220754958 0.09343639517075687
          -0.17924310114806846 -0.49330396590540376 -0.8265207014008402 -1.1450178151505774 -1.4137843029917538 -1.6158449127879826
          -1.7591019987931928 -1.8559962773794856 -1.9208079469401693 -1.9631315240011231 -1.988974384057605 -2.0016981313005195
          -2.002244289237285 -1.9906441280545593 -1.9671294410882965 -1.9295870212147395 -1.8764215672123332 -1.8026897788599534
          -1.7037231543419808 -1.5703978141996005 -1.3977765473839148 -1.1804774039128638 -0.9223328220636439 -0.6314914739242393
          -0.3317607364428175 -0.03584817235284876 0.24288598962758187 0.497956208871648 0.7279590871081228 0.9355128279021279
          1.1220297268239983 1.2901111019188507 1.445670919114033 1.5850643154905095 1.7152043066343272 1.8355525714678051
          1.8579870118180961 1.773351522423095 1.684627585456781 1.5918176127266357 1.494352000527947 1.3923048662110462
          1.2830043749942215 1.167388863568199 1.042580274353575 0.9068453846441262 0.7569505594466277 0.588844443585983
          0.39660876371919634 0.17170513893479303 -0.09361251144673992 -0.40209394558174755 -0.7417456260913717 -1.0740095537625087
          -1.3635159756943385 -1.5887232534638989 -1.7499225989355263 -1.8601519245311655 -1.935507371272948 -1.9863258636230894
          -2.0197561587257145 -2.0396839627378425 -2.0478825653805766 -2.045119737711056 -2.030763719008006 -2.00369908739003
          -1.9626684298523234 -1.903595925383681 -1.8214373483117017 -1.7090616441579458 -1.556992307344332 -1.3556349533553738
          -1.105410860553255 -0.8177187677772655 -0.50879539379894 -0.1989421702932268 0.09786454213795513 0.36715441828576156
          0.6136075190941326 0.8335341919741598 1.0335005569442706 1.2130999053684706 1.3738618960005955 1.5206979281013235
          1.6554545774642795 1.780798670966423 1.8975303075710914 1.8059830028106565 1.7193386242362099 1.6290292593551865
          1.5337724468163902 1.433737628057177 1.3280034057440149 1.2153221035276993 1.0942059998257823 0.9632774877947401
          0.8182638626833305 0.6562241707720855 0.4712708612064766 0.2550041910526051 0.0010804302899457229 -0.297298716077981
          -0.6294434548204594 -0.9678039767812202 -1.275907744625531 -1.5282749158519005 -1.7133567254819768 -1.841925760375355
          -1.92991852767583 -1.990902117546388 -2.032293281945912 -2.0591243879602112 -2.0738872554615204 -2.078313203847754
          -2.07191662923175 -2.054023544185171 -2.023047303305061 -1.9759476725131515 -1.9078017807413141 -1.8111310710937851
          -1.676300737966335 -1.4935113609981694 -1.257180154376504 -0.9753300851916183 -0.6644385777576995 -0.348697764739745
          -0.044623751547736075 0.23984921511522983 0.49832515444694747 0.7320122449809705 0.943055649957744 1.1313281844114587
          1.3009177598892387 1.4557150690068472 1.5951442024322038 1.7242663583401647 1.844516610685936 1.9578331773543365
          1.7545355256137027 1.6662587074598503 1.5742597736611952 1.4769612465769661 1.3738766909061935 1.264985724265691
          1.1477462160417962 1.0206438486773177 0.8814414744099971 0.7257618784546628 0.5492487505878683 0.3431436213477657
          0.1026315222296212 -0.1807404454530151 -0.4999039176305814 -0.8337623053783682 -1.151929719317779 -1.4293698844024696
          -1.6439153951574195 -1.7965222604230933 -1.9025935162117467 -1.9760544046917552 -2.026931477827183 -2.06098216906305
          -2.0825451472564067 -2.0932087118951754 -2.0937488245003295 -2.0835784467161242 -2.0612800921691523 -2.0243785034184514
          -1.968210781980721 -1.8853560339402393 -1.7666280979688045 -1.6001136193671455 -1.3776963507047688 -1.1062170132922504
          -0.8012718365811758 -0.4832664084003315 -0.17469624039869278 0.11634764335014573 0.38463405631014363 0.6291432394186612
          0.8491515314293538 1.049896948005759 1.2273245867767595 1.3878503864517282 1.5334053832048098 1.6672875829086702
          1.7911952256669823 1.907954360823874 2.017269126362829 1.706417159358319 1.6162044381575429 1.5207621605365431
          1.420820253352913 1.3156278480580634 1.2022737425525982 1.080292045172484 0.946166392771468 0.7971377267193526
          0.6289210168152907 0.4352363069701978 0.20844412774135787 -0.0584342112977333 -0.3572894284569859 -0.6748506985000069
          -0.995444144446621 -1.2910651410754088 -1.535645044927531 -1.7195616524255202 -1.8496494958442817 -1.9398094634994951
          -2.002377783229695 -2.045437853516354 -2.073942995772809 -2.0909617358965815 -2.0976476941097486 -2.0941037408346155
          -2.079328779001926 -2.0511688229742497 -2.0055696447428937 -1.935364454681488 -1.8304638915331537 -1.6795189836124533
          -1.4735880457157935 -1.2151822141063247 -0.9166151585853513 -0.6019730261694365 -0.292711339274837 0.0014173471292220677
          0.27308719129578257 0.5255324161353538 0.756262038408079 0.9640854353579025 1.1506782140239757 1.3190276851378158
          1.4709073418833698 1.6092014779027402 1.7373731485798258 1.8572854984277765 1.969255089440719 2.07600916135996
          1.660304877507819 1.5681236726714751 1.4709741025958487 1.3682075588015064 1.2583174286515362 1.1400032260792798
          1.0111717531232236 0.8706274612863042 0.7108215806130191 0.5278512063213623 0.3150452903300191 0.06888524549090302
          -0.20701522080370358 -0.5050079751016258 -0.8134893055055414 -1.1149989500629 -1.3845839860577434 -1.6029388776595253
          -1.7642903394284244 -1.8773520192086124 -1.9556065795800404 -2.0098748549763146 -2.0467927714185525 -2.0707670057187957
          -2.0837329820629162 -2.086318980053397 -2.078192017376426 -2.0577651130025343 -2.021192718891143 -1.9622296424081014
          -1.8704994297466937 -1.7348866735317068 -1.5444372768910724 -1.2982799381627153 -1.0126478562302867 -0.7030760143464565
          -0.3967520729890066 -0.10481830538012302 0.17058702503441167 0.4254630052085912 0.6608698586761431 0.8775851631973391
          1.0733912870390652 1.2485942478584175 1.405798076750276 1.55034059946365 1.6823479892897328 1.8053624270999602
          1.9207447017901063 2.030664643926866 2.134084602368503 1.616975884908356 1.5233228098245826 1.42398852771507
          1.317955645203707 1.2043799086564178 1.0808971376981422 0.9446605382446317 0.7929678386688366 0.6210700658333635
          0.4242380764478009 0.19534099836310959 -0.0572529323579062 -0.330545360791137 -0.6172150633799939 -0.910836256171106
          -1.1920906807002265 -1.4412749515907182 -1.6382926251451146 -1.7818874017994835 -1.881829473873492 -1.950983473034192
          -1.9984324917912721 -2.030003739049246 -2.0498686617756894 -2.058783577062554 -2.057174648337521 -2.043411212085538
          -2.0152271661982297 -1.9666407708144082 -1.8878038637731438 -1.7649815680757783 -1.5906144905782893 -1.361182808330127
          -1.086402500690174 -0.7878648389392617 -0.4858045547994251 -0.19534161569436495 0.07553128465843578 0.3302207561516089
          0.5707516926938097 0.7915166781806473 0.9937136407306177 1.176630191361078 1.3408899813532082 1.4899707188090892
          1.627394952923432 1.753965545761289 1.8724781076287471 1.9847018963401328 2.0907626256532623 2.1920774181334197